<?xml version="1.0" encoding="UTF-8"?>

<!-- generated on 2025-06-13 10:08:45 by Eclipse SUMO GUI Version 1.21.0
<sumoConfiguration xmlns:xsi="http://www.w3.org/2001/XMLSchema-instance" xsi:noNamespaceSchemaLocation="http://sumo.dlr.de/xsd/sumoConfiguration.xsd">

    <input>
        <net-file value="C:\Users\xh8\ornl_work\github_workspace\SUMO-DVSL-DDPG\map.net.xml"/>
        <route-files value="C:\Users\xh8\ornl_work\github_workspace\SUMO-DVSL-DDPG\map.rou.xml"/>
        <additional-files value="C:\Users\xh8\ornl_work\github_workspace\SUMO-DVSL-DDPG\map.add.xml"/>
    </input>

    <output>
        <summary-output value="C:\Users\xh8\ornl_work\github_workspace\SUMO-DVSL-DDPG\data/output_sumo.xml"/>
    </output>

    <time>
        <begin value="27000.0"/>
        <end value="34200.0"/>
        <step-length value="1"/>
    </time>

    <processing>
        <time-to-teleport value="-1"/>
    </processing>

    <report>
        <duration-log.disable value="true"/>
        <no-step-log value="true"/>
    </report>

</sumoConfiguration>
-->

<detector xmlns:xsi="http://www.w3.org/2001/XMLSchema-instance" xsi:noNamespaceSchemaLocation="http://sumo.dlr.de/xsd/det_e1_file.xsd">
    <interval begin="27000.00" end="27300.00" id="10_0_D0.0" nVehContrib="1" flow="12.00" occupancy="0.14" speed="11.74" harmonicMeanSpeed="11.74" length="5.00" nVehEntered="1"/>
    <interval begin="27000.00" end="27300.00" id="10_0_D0.1" nVehContrib="8" flow="96.00" occupancy="1.98" speed="9.36" harmonicMeanSpeed="6.72" length="5.00" nVehEntered="8"/>
    <interval begin="27000.00" end="27300.00" id="10_0_D0.2" nVehContrib="12" flow="144.00" occupancy="2.68" speed="8.84" harmonicMeanSpeed="7.47" length="5.00" nVehEntered="12"/>
    <interval begin="27000.00" end="27300.00" id="10_0_D0.3" nVehContrib="4" flow="48.00" occupancy="0.51" speed="13.17" harmonicMeanSpeed="13.16" length="5.00" nVehEntered="4"/>
    <interval begin="27000.00" end="27300.00" id="10_0_D0.4" nVehContrib="0" flow="0.00" occupancy="0.00" speed="-1.00" harmonicMeanSpeed="-1.00" length="-1.00" nVehEntered="0"/>
    <interval begin="27000.00" end="27300.00" id="10_0_D1.0" nVehContrib="32" flow="384.00" occupancy="4.33" speed="14.12" harmonicMeanSpeed="12.60" length="5.00" nVehEntered="33"/>
    <interval begin="27000.00" end="27300.00" id="10_0_D1.1" nVehContrib="22" flow="264.00" occupancy="3.62" speed="14.06" harmonicMeanSpeed="10.13" length="5.00" nVehEntered="22"/>
    <interval begin="27000.00" end="27300.00" id="10_0_D1.2" nVehContrib="25" flow="300.00" occupancy="5.13" speed="11.35" harmonicMeanSpeed="8.12" length="5.00" nVehEntered="25"/>
    <interval begin="27000.00" end="27300.00" id="10_0_D1.3" nVehContrib="26" flow="312.00" occupancy="6.62" speed="9.10" harmonicMeanSpeed="6.55" length="5.00" nVehEntered="27"/>
    <interval begin="27000.00" end="27300.00" id="10_0_D1.4" nVehContrib="27" flow="324.00" occupancy="6.04" speed="11.59" harmonicMeanSpeed="7.45" length="5.00" nVehEntered="27"/>
    <interval begin="27000.00" end="27300.00" id="10_0_D2.0" nVehContrib="9" flow="108.00" occupancy="1.12" speed="13.80" harmonicMeanSpeed="13.44" length="5.00" nVehEntered="9"/>
    <interval begin="27000.00" end="27300.00" id="10_0_D2.1" nVehContrib="4" flow="48.00" occupancy="0.48" speed="13.86" harmonicMeanSpeed="13.76" length="5.00" nVehEntered="4"/>
    <interval begin="27000.00" end="27300.00" id="10_0_D2.2" nVehContrib="1" flow="12.00" occupancy="0.12" speed="13.95" harmonicMeanSpeed="13.95" length="5.00" nVehEntered="1"/>
    <interval begin="27000.00" end="27300.00" id="10_0_D2.3" nVehContrib="3" flow="36.00" occupancy="0.35" speed="14.84" harmonicMeanSpeed="14.24" length="5.00" nVehEntered="3"/>
    <interval begin="27000.00" end="27300.00" id="10_0_D2.4" nVehContrib="3" flow="36.00" occupancy="0.29" speed="17.10" harmonicMeanSpeed="17.05" length="5.00" nVehEntered="3"/>
    <interval begin="27000.00" end="27300.00" id="10_0_D3.0" nVehContrib="18" flow="216.00" occupancy="4.74" speed="9.09" harmonicMeanSpeed="6.35" length="5.00" nVehEntered="19"/>
    <interval begin="27000.00" end="27300.00" id="10_0_D3.1" nVehContrib="17" flow="204.00" occupancy="4.08" speed="10.28" harmonicMeanSpeed="6.95" length="5.00" nVehEntered="17"/>
    <interval begin="27000.00" end="27300.00" id="10_0_D3.2" nVehContrib="26" flow="312.00" occupancy="6.53" speed="9.49" harmonicMeanSpeed="6.64" length="5.00" nVehEntered="26"/>
    <interval begin="27000.00" end="27300.00" id="10_0_D3.3" nVehContrib="13" flow="156.00" occupancy="1.40" speed="16.41" harmonicMeanSpeed="15.47" length="5.00" nVehEntered="13"/>
    <interval begin="27000.00" end="27300.00" id="10_0_D3.4" nVehContrib="0" flow="0.00" occupancy="0.00" speed="-1.00" harmonicMeanSpeed="-1.00" length="-1.00" nVehEntered="0"/>
    <interval begin="27000.00" end="27300.00" id="101_0_D0.0" nVehContrib="0" flow="0.00" occupancy="0.00" speed="-1.00" harmonicMeanSpeed="-1.00" length="-1.00" nVehEntered="0"/>
    <interval begin="27000.00" end="27300.00" id="101_0_D0.1" nVehContrib="0" flow="0.00" occupancy="0.00" speed="-1.00" harmonicMeanSpeed="-1.00" length="-1.00" nVehEntered="0"/>
    <interval begin="27000.00" end="27300.00" id="101_0_D1.0" nVehContrib="0" flow="0.00" occupancy="0.00" speed="-1.00" harmonicMeanSpeed="-1.00" length="-1.00" nVehEntered="0"/>
    <interval begin="27000.00" end="27300.00" id="101_0_D1.1" nVehContrib="0" flow="0.00" occupancy="0.00" speed="-1.00" harmonicMeanSpeed="-1.00" length="-1.00" nVehEntered="0"/>
    <interval begin="27000.00" end="27300.00" id="101_0_D2.0" nVehContrib="0" flow="0.00" occupancy="0.00" speed="-1.00" harmonicMeanSpeed="-1.00" length="-1.00" nVehEntered="0"/>
    <interval begin="27000.00" end="27300.00" id="101_0_D2.1" nVehContrib="0" flow="0.00" occupancy="0.00" speed="-1.00" harmonicMeanSpeed="-1.00" length="-1.00" nVehEntered="0"/>
    <interval begin="27000.00" end="27300.00" id="101_0_D3.0" nVehContrib="0" flow="0.00" occupancy="0.00" speed="-1.00" harmonicMeanSpeed="-1.00" length="-1.00" nVehEntered="0"/>
    <interval begin="27000.00" end="27300.00" id="101_0_D3.1" nVehContrib="0" flow="0.00" occupancy="0.00" speed="-1.00" harmonicMeanSpeed="-1.00" length="-1.00" nVehEntered="0"/>
    <interval begin="27000.00" end="27300.00" id="102_0_D0.0" nVehContrib="23" flow="276.00" occupancy="3.44" speed="12.80" harmonicMeanSpeed="11.50" length="5.00" nVehEntered="25"/>
    <interval begin="27000.00" end="27300.00" id="102_0_D0.1" nVehContrib="37" flow="444.00" occupancy="5.10" speed="15.19" harmonicMeanSpeed="12.34" length="5.00" nVehEntered="38"/>
    <interval begin="27000.00" end="27300.00" id="102_0_D0.2" nVehContrib="42" flow="504.00" occupancy="5.07" speed="15.77" harmonicMeanSpeed="13.79" length="5.00" nVehEntered="42"/>
    <interval begin="27000.00" end="27300.00" id="102_0_D0.3" nVehContrib="11" flow="132.00" occupancy="1.11" speed="17.78" harmonicMeanSpeed="16.47" length="5.00" nVehEntered="11"/>
    <interval begin="27000.00" end="27300.00" id="102_0_D1.0" nVehContrib="1" flow="12.00" occupancy="0.13" speed="12.36" harmonicMeanSpeed="12.36" length="5.00" nVehEntered="1"/>
    <interval begin="27000.00" end="27300.00" id="102_0_D2.0" nVehContrib="15" flow="180.00" occupancy="1.89" speed="15.32" harmonicMeanSpeed="13.83" length="5.00" nVehEntered="16"/>
    <interval begin="27000.00" end="27300.00" id="102_0_D2.1" nVehContrib="20" flow="240.00" occupancy="2.51" speed="15.41" harmonicMeanSpeed="13.30" length="5.00" nVehEntered="20"/>
    <interval begin="27000.00" end="27300.00" id="102_0_D2.2" nVehContrib="13" flow="156.00" occupancy="1.32" speed="17.17" harmonicMeanSpeed="16.38" length="5.00" nVehEntered="13"/>
    <interval begin="27000.00" end="27300.00" id="102_0_D2.3" nVehContrib="4" flow="48.00" occupancy="0.35" speed="19.57" harmonicMeanSpeed="19.09" length="5.00" nVehEntered="4"/>
    <interval begin="27000.00" end="27300.00" id="102_0_D3.0" nVehContrib="1" flow="12.00" occupancy="0.14" speed="12.20" harmonicMeanSpeed="12.20" length="5.00" nVehEntered="1"/>
    <interval begin="27000.00" end="27300.00" id="104_0_D0.0" nVehContrib="24" flow="288.00" occupancy="3.15" speed="13.86" harmonicMeanSpeed="12.71" length="5.00" nVehEntered="24"/>
    <interval begin="27000.00" end="27300.00" id="104_0_D0.1" nVehContrib="20" flow="240.00" occupancy="2.48" speed="14.45" harmonicMeanSpeed="13.44" length="5.00" nVehEntered="20"/>
    <interval begin="27000.00" end="27300.00" id="104_0_D0.2" nVehContrib="12" flow="144.00" occupancy="1.30" speed="16.26" harmonicMeanSpeed="15.37" length="5.00" nVehEntered="12"/>
    <interval begin="27000.00" end="27300.00" id="104_0_D1.0" nVehContrib="1" flow="12.00" occupancy="0.14" speed="11.69" harmonicMeanSpeed="11.69" length="5.00" nVehEntered="1"/>
    <interval begin="27000.00" end="27300.00" id="104_0_D1.1" nVehContrib="1" flow="12.00" occupancy="0.15" speed="10.82" harmonicMeanSpeed="10.82" length="5.00" nVehEntered="1"/>
    <interval begin="27000.00" end="27300.00" id="104_0_D2.0" nVehContrib="31" flow="372.00" occupancy="6.95" speed="10.04" harmonicMeanSpeed="7.44" length="5.00" nVehEntered="31"/>
    <interval begin="27000.00" end="27300.00" id="104_0_D2.1" nVehContrib="37" flow="444.00" occupancy="7.31" speed="11.19" harmonicMeanSpeed="8.50" length="5.00" nVehEntered="38"/>
    <interval begin="27000.00" end="27300.00" id="104_0_D2.2" nVehContrib="24" flow="288.00" occupancy="2.70" speed="16.55" harmonicMeanSpeed="14.80" length="5.00" nVehEntered="24"/>
    <interval begin="27000.00" end="27300.00" id="104_0_D3.0" nVehContrib="1" flow="12.00" occupancy="0.14" speed="11.96" harmonicMeanSpeed="11.96" length="5.00" nVehEntered="1"/>
    <interval begin="27000.00" end="27300.00" id="104_0_D3.1" nVehContrib="1" flow="12.00" occupancy="0.15" speed="11.30" harmonicMeanSpeed="11.30" length="5.00" nVehEntered="1"/>
    <interval begin="27000.00" end="27300.00" id="104_0_D3.2" nVehContrib="1" flow="12.00" occupancy="0.15" speed="11.04" harmonicMeanSpeed="11.04" length="5.00" nVehEntered="1"/>
    <interval begin="27000.00" end="27300.00" id="105_0_D0.0" nVehContrib="6" flow="72.00" occupancy="0.65" speed="15.67" harmonicMeanSpeed="15.43" length="5.00" nVehEntered="6"/>
    <interval begin="27000.00" end="27300.00" id="105_0_D0.1" nVehContrib="13" flow="156.00" occupancy="1.67" speed="14.61" harmonicMeanSpeed="13.25" length="5.00" nVehEntered="14"/>
    <interval begin="27000.00" end="27300.00" id="105_0_D0.2" nVehContrib="13" flow="156.00" occupancy="1.96" speed="13.62" harmonicMeanSpeed="11.07" length="5.00" nVehEntered="13"/>
    <interval begin="27000.00" end="27300.00" id="105_0_D0.3" nVehContrib="9" flow="108.00" occupancy="0.96" speed="16.18" harmonicMeanSpeed="15.56" length="5.00" nVehEntered="9"/>
    <interval begin="27000.00" end="27300.00" id="105_0_D1.0" nVehContrib="1" flow="12.00" occupancy="0.15" speed="11.39" harmonicMeanSpeed="11.39" length="5.00" nVehEntered="1"/>
    <interval begin="27000.00" end="27300.00" id="105_0_D1.1" nVehContrib="1" flow="12.00" occupancy="0.14" speed="12.19" harmonicMeanSpeed="12.19" length="5.00" nVehEntered="1"/>
    <interval begin="27000.00" end="27300.00" id="105_0_D2.0" nVehContrib="22" flow="264.00" occupancy="6.05" speed="10.52" harmonicMeanSpeed="6.06" length="5.00" nVehEntered="22"/>
    <interval begin="27000.00" end="27300.00" id="105_0_D2.1" nVehContrib="39" flow="468.00" occupancy="9.81" speed="9.14" harmonicMeanSpeed="6.62" length="5.00" nVehEntered="39"/>
    <interval begin="27000.00" end="27300.00" id="105_0_D2.2" nVehContrib="11" flow="132.00" occupancy="1.27" speed="14.55" harmonicMeanSpeed="14.44" length="5.00" nVehEntered="11"/>
    <interval begin="27000.00" end="27300.00" id="105_0_D3.0" nVehContrib="1" flow="12.00" occupancy="0.16" speed="10.34" harmonicMeanSpeed="10.34" length="5.00" nVehEntered="1"/>
    <interval begin="27000.00" end="27300.00" id="105_0_D3.1" nVehContrib="1" flow="12.00" occupancy="0.15" speed="11.02" harmonicMeanSpeed="11.02" length="5.00" nVehEntered="1"/>
    <interval begin="27000.00" end="27300.00" id="105_0_D3.2" nVehContrib="1" flow="12.00" occupancy="0.14" speed="11.95" harmonicMeanSpeed="11.95" length="5.00" nVehEntered="1"/>
    <interval begin="27000.00" end="27300.00" id="106_0_D0.0" nVehContrib="28" flow="336.00" occupancy="3.44" speed="14.21" harmonicMeanSpeed="14.11" length="5.00" nVehEntered="30"/>
    <interval begin="27000.00" end="27300.00" id="106_0_D0.1" nVehContrib="8" flow="96.00" occupancy="1.38" speed="13.26" harmonicMeanSpeed="9.67" length="5.00" nVehEntered="8"/>
    <interval begin="27000.00" end="27300.00" id="106_0_D0.2" nVehContrib="5" flow="60.00" occupancy="0.57" speed="14.60" harmonicMeanSpeed="14.59" length="5.00" nVehEntered="5"/>
    <interval begin="27000.00" end="27300.00" id="106_0_D0.3" nVehContrib="1" flow="12.00" occupancy="0.10" speed="16.45" harmonicMeanSpeed="16.45" length="5.00" nVehEntered="1"/>
    <interval begin="27000.00" end="27300.00" id="106_0_D1.0" nVehContrib="1" flow="12.00" occupancy="0.13" speed="13.21" harmonicMeanSpeed="13.21" length="5.00" nVehEntered="1"/>
    <interval begin="27000.00" end="27300.00" id="106_0_D1.1" nVehContrib="1" flow="12.00" occupancy="0.16" speed="10.56" harmonicMeanSpeed="10.56" length="5.00" nVehEntered="1"/>
    <interval begin="27000.00" end="27300.00" id="106_0_D2.0" nVehContrib="62" flow="744.00" occupancy="8.60" speed="13.29" harmonicMeanSpeed="12.74" length="5.00" nVehEntered="67"/>
    <interval begin="27000.00" end="27300.00" id="106_0_D2.1" nVehContrib="49" flow="588.00" occupancy="7.44" speed="13.53" harmonicMeanSpeed="11.34" length="5.00" nVehEntered="52"/>
    <interval begin="27000.00" end="27300.00" id="106_0_D2.2" nVehContrib="15" flow="180.00" occupancy="2.42" speed="13.50" harmonicMeanSpeed="10.33" length="5.00" nVehEntered="15"/>
    <interval begin="27000.00" end="27300.00" id="106_0_D2.3" nVehContrib="5" flow="60.00" occupancy="0.52" speed="16.23" harmonicMeanSpeed="16.14" length="5.00" nVehEntered="5"/>
    <interval begin="27000.00" end="27300.00" id="106_0_D3.0" nVehContrib="1" flow="12.00" occupancy="0.15" speed="11.38" harmonicMeanSpeed="11.38" length="5.00" nVehEntered="1"/>
    <interval begin="27000.00" end="27300.00" id="106_0_D3.1" nVehContrib="1" flow="12.00" occupancy="0.15" speed="11.31" harmonicMeanSpeed="11.31" length="5.00" nVehEntered="1"/>
    <interval begin="27000.00" end="27300.00" id="107_0_D0.0" nVehContrib="0" flow="0.00" occupancy="0.00" speed="-1.00" harmonicMeanSpeed="-1.00" length="-1.00" nVehEntered="0"/>
    <interval begin="27000.00" end="27300.00" id="107_0_D0.1" nVehContrib="0" flow="0.00" occupancy="0.00" speed="-1.00" harmonicMeanSpeed="-1.00" length="-1.00" nVehEntered="0"/>
    <interval begin="27000.00" end="27300.00" id="107_0_D0.2" nVehContrib="0" flow="0.00" occupancy="0.00" speed="-1.00" harmonicMeanSpeed="-1.00" length="-1.00" nVehEntered="0"/>
    <interval begin="27000.00" end="27300.00" id="107_0_D0.3" nVehContrib="0" flow="0.00" occupancy="0.00" speed="-1.00" harmonicMeanSpeed="-1.00" length="-1.00" nVehEntered="0"/>
    <interval begin="27000.00" end="27300.00" id="107_0_D1.0" nVehContrib="0" flow="0.00" occupancy="0.00" speed="-1.00" harmonicMeanSpeed="-1.00" length="-1.00" nVehEntered="0"/>
    <interval begin="27000.00" end="27300.00" id="107_0_D1.1" nVehContrib="0" flow="0.00" occupancy="0.00" speed="-1.00" harmonicMeanSpeed="-1.00" length="-1.00" nVehEntered="0"/>
    <interval begin="27000.00" end="27300.00" id="107_0_D2.0" nVehContrib="0" flow="0.00" occupancy="0.00" speed="-1.00" harmonicMeanSpeed="-1.00" length="-1.00" nVehEntered="0"/>
    <interval begin="27000.00" end="27300.00" id="107_0_D2.1" nVehContrib="0" flow="0.00" occupancy="0.00" speed="-1.00" harmonicMeanSpeed="-1.00" length="-1.00" nVehEntered="0"/>
    <interval begin="27000.00" end="27300.00" id="107_0_D2.2" nVehContrib="0" flow="0.00" occupancy="0.00" speed="-1.00" harmonicMeanSpeed="-1.00" length="-1.00" nVehEntered="0"/>
    <interval begin="27000.00" end="27300.00" id="107_0_D2.3" nVehContrib="0" flow="0.00" occupancy="0.00" speed="-1.00" harmonicMeanSpeed="-1.00" length="-1.00" nVehEntered="0"/>
    <interval begin="27000.00" end="27300.00" id="107_0_D3.0" nVehContrib="0" flow="0.00" occupancy="0.00" speed="-1.00" harmonicMeanSpeed="-1.00" length="-1.00" nVehEntered="0"/>
    <interval begin="27000.00" end="27300.00" id="107_0_D3.1" nVehContrib="0" flow="0.00" occupancy="0.00" speed="-1.00" harmonicMeanSpeed="-1.00" length="-1.00" nVehEntered="0"/>
    <interval begin="27000.00" end="27300.00" id="107_0_D3.2" nVehContrib="0" flow="0.00" occupancy="0.00" speed="-1.00" harmonicMeanSpeed="-1.00" length="-1.00" nVehEntered="0"/>
    <interval begin="27000.00" end="27300.00" id="108_0_D0.0" nVehContrib="0" flow="0.00" occupancy="0.00" speed="-1.00" harmonicMeanSpeed="-1.00" length="-1.00" nVehEntered="0"/>
    <interval begin="27000.00" end="27300.00" id="108_0_D0.1" nVehContrib="0" flow="0.00" occupancy="0.00" speed="-1.00" harmonicMeanSpeed="-1.00" length="-1.00" nVehEntered="0"/>
    <interval begin="27000.00" end="27300.00" id="108_0_D0.2" nVehContrib="0" flow="0.00" occupancy="0.00" speed="-1.00" harmonicMeanSpeed="-1.00" length="-1.00" nVehEntered="0"/>
    <interval begin="27000.00" end="27300.00" id="108_0_D0.3" nVehContrib="0" flow="0.00" occupancy="0.00" speed="-1.00" harmonicMeanSpeed="-1.00" length="-1.00" nVehEntered="0"/>
    <interval begin="27000.00" end="27300.00" id="108_0_D1.0" nVehContrib="0" flow="0.00" occupancy="0.00" speed="-1.00" harmonicMeanSpeed="-1.00" length="-1.00" nVehEntered="0"/>
    <interval begin="27000.00" end="27300.00" id="108_0_D1.1" nVehContrib="0" flow="0.00" occupancy="0.00" speed="-1.00" harmonicMeanSpeed="-1.00" length="-1.00" nVehEntered="0"/>
    <interval begin="27000.00" end="27300.00" id="108_0_D1.2" nVehContrib="0" flow="0.00" occupancy="0.00" speed="-1.00" harmonicMeanSpeed="-1.00" length="-1.00" nVehEntered="0"/>
    <interval begin="27000.00" end="27300.00" id="108_0_D2.0" nVehContrib="22" flow="264.00" occupancy="2.59" speed="17.17" harmonicMeanSpeed="14.16" length="5.00" nVehEntered="22"/>
    <interval begin="27000.00" end="27300.00" id="108_0_D2.1" nVehContrib="9" flow="108.00" occupancy="0.84" speed="19.82" harmonicMeanSpeed="19.70" length="5.00" nVehEntered="11"/>
    <interval begin="27000.00" end="27300.00" id="108_0_D2.2" nVehContrib="11" flow="132.00" occupancy="0.92" speed="20.01" harmonicMeanSpeed="19.95" length="5.00" nVehEntered="11"/>
    <interval begin="27000.00" end="27300.00" id="108_0_D2.3" nVehContrib="3" flow="36.00" occupancy="0.23" speed="21.42" harmonicMeanSpeed="21.30" length="5.00" nVehEntered="3"/>
    <interval begin="27000.00" end="27300.00" id="108_0_D2.4" nVehContrib="0" flow="0.00" occupancy="0.00" speed="-1.00" harmonicMeanSpeed="-1.00" length="-1.00" nVehEntered="0"/>
    <interval begin="27000.00" end="27300.00" id="108_0_D3.0" nVehContrib="0" flow="0.00" occupancy="0.00" speed="-1.00" harmonicMeanSpeed="-1.00" length="-1.00" nVehEntered="0"/>
    <interval begin="27000.00" end="27300.00" id="108_0_D3.1" nVehContrib="0" flow="0.00" occupancy="0.00" speed="-1.00" harmonicMeanSpeed="-1.00" length="-1.00" nVehEntered="0"/>
    <interval begin="27000.00" end="27300.00" id="108_0_D3.2" nVehContrib="0" flow="0.00" occupancy="0.00" speed="-1.00" harmonicMeanSpeed="-1.00" length="-1.00" nVehEntered="0"/>
    <interval begin="27000.00" end="27300.00" id="109_0_D0.0" nVehContrib="20" flow="240.00" occupancy="2.99" speed="12.56" harmonicMeanSpeed="11.13" length="5.00" nVehEntered="20"/>
    <interval begin="27000.00" end="27300.00" id="109_0_D0.1" nVehContrib="17" flow="204.00" occupancy="1.95" speed="15.17" harmonicMeanSpeed="14.55" length="5.00" nVehEntered="17"/>
    <interval begin="27000.00" end="27300.00" id="109_0_D0.2" nVehContrib="10" flow="120.00" occupancy="0.99" speed="17.14" harmonicMeanSpeed="16.90" length="5.00" nVehEntered="10"/>
    <interval begin="27000.00" end="27300.00" id="109_0_D1.0" nVehContrib="2" flow="24.00" occupancy="0.22" speed="15.10" harmonicMeanSpeed="14.82" length="5.00" nVehEntered="2"/>
    <interval begin="27000.00" end="27300.00" id="109_0_D1.1" nVehContrib="0" flow="0.00" occupancy="0.00" speed="-1.00" harmonicMeanSpeed="-1.00" length="-1.00" nVehEntered="0"/>
    <interval begin="27000.00" end="27300.00" id="109_0_D1.2" nVehContrib="2" flow="24.00" occupancy="0.28" speed="11.94" harmonicMeanSpeed="11.93" length="5.00" nVehEntered="2"/>
    <interval begin="27000.00" end="27300.00" id="109_0_D2.0" nVehContrib="28" flow="336.00" occupancy="5.07" speed="12.29" harmonicMeanSpeed="9.20" length="5.00" nVehEntered="28"/>
    <interval begin="27000.00" end="27300.00" id="109_0_D2.1" nVehContrib="42" flow="504.00" occupancy="8.91" speed="10.92" harmonicMeanSpeed="7.85" length="5.00" nVehEntered="42"/>
    <interval begin="27000.00" end="27300.00" id="109_0_D2.2" nVehContrib="32" flow="384.00" occupancy="3.32" speed="17.51" harmonicMeanSpeed="16.05" length="5.00" nVehEntered="32"/>
    <interval begin="27000.00" end="27300.00" id="109_0_D3.0" nVehContrib="1" flow="12.00" occupancy="0.15" speed="11.25" harmonicMeanSpeed="11.25" length="5.00" nVehEntered="1"/>
    <interval begin="27000.00" end="27300.00" id="109_0_D3.1" nVehContrib="0" flow="0.00" occupancy="0.00" speed="-1.00" harmonicMeanSpeed="-1.00" length="-1.00" nVehEntered="0"/>
    <interval begin="27000.00" end="27300.00" id="109_0_D3.2" nVehContrib="1" flow="12.00" occupancy="0.14" speed="11.89" harmonicMeanSpeed="11.89" length="5.00" nVehEntered="1"/>
    <interval begin="27000.00" end="27300.00" id="11_0_D0.0" nVehContrib="0" flow="0.00" occupancy="0.00" speed="-1.00" harmonicMeanSpeed="-1.00" length="-1.00" nVehEntered="0"/>
    <interval begin="27000.00" end="27300.00" id="11_0_D0.1" nVehContrib="0" flow="0.00" occupancy="0.00" speed="-1.00" harmonicMeanSpeed="-1.00" length="-1.00" nVehEntered="0"/>
    <interval begin="27000.00" end="27300.00" id="11_0_D1.0" nVehContrib="7" flow="84.00" occupancy="0.67" speed="17.40" harmonicMeanSpeed="17.33" length="5.00" nVehEntered="7"/>
    <interval begin="27000.00" end="27300.00" id="11_0_D1.1" nVehContrib="3" flow="36.00" occupancy="0.25" speed="19.98" harmonicMeanSpeed="19.97" length="5.00" nVehEntered="3"/>
    <interval begin="27000.00" end="27300.00" id="11_0_D1.2" nVehContrib="0" flow="0.00" occupancy="0.00" speed="-1.00" harmonicMeanSpeed="-1.00" length="-1.00" nVehEntered="0"/>
    <interval begin="27000.00" end="27300.00" id="11_0_D2.0" nVehContrib="0" flow="0.00" occupancy="0.00" speed="-1.00" harmonicMeanSpeed="-1.00" length="-1.00" nVehEntered="0"/>
    <interval begin="27000.00" end="27300.00" id="11_0_D2.1" nVehContrib="0" flow="0.00" occupancy="0.00" speed="-1.00" harmonicMeanSpeed="-1.00" length="-1.00" nVehEntered="0"/>
    <interval begin="27000.00" end="27300.00" id="11_0_D3.0" nVehContrib="4" flow="48.00" occupancy="0.39" speed="17.14" harmonicMeanSpeed="17.00" length="5.00" nVehEntered="4"/>
    <interval begin="27000.00" end="27300.00" id="11_0_D3.1" nVehContrib="0" flow="0.00" occupancy="0.00" speed="-1.00" harmonicMeanSpeed="-1.00" length="-1.00" nVehEntered="0"/>
    <interval begin="27000.00" end="27300.00" id="11_0_D3.2" nVehContrib="0" flow="0.00" occupancy="0.00" speed="-1.00" harmonicMeanSpeed="-1.00" length="-1.00" nVehEntered="0"/>
    <interval begin="27000.00" end="27300.00" id="110_0_D0.0" nVehContrib="0" flow="0.00" occupancy="0.00" speed="-1.00" harmonicMeanSpeed="-1.00" length="-1.00" nVehEntered="0"/>
    <interval begin="27000.00" end="27300.00" id="110_0_D0.1" nVehContrib="0" flow="0.00" occupancy="0.00" speed="-1.00" harmonicMeanSpeed="-1.00" length="-1.00" nVehEntered="0"/>
    <interval begin="27000.00" end="27300.00" id="110_0_D1.0" nVehContrib="0" flow="0.00" occupancy="0.00" speed="-1.00" harmonicMeanSpeed="-1.00" length="-1.00" nVehEntered="0"/>
    <interval begin="27000.00" end="27300.00" id="110_0_D1.1" nVehContrib="0" flow="0.00" occupancy="0.00" speed="-1.00" harmonicMeanSpeed="-1.00" length="-1.00" nVehEntered="0"/>
    <interval begin="27000.00" end="27300.00" id="110_0_D1.2" nVehContrib="0" flow="0.00" occupancy="0.00" speed="-1.00" harmonicMeanSpeed="-1.00" length="-1.00" nVehEntered="0"/>
    <interval begin="27000.00" end="27300.00" id="110_0_D2.0" nVehContrib="0" flow="0.00" occupancy="0.00" speed="-1.00" harmonicMeanSpeed="-1.00" length="-1.00" nVehEntered="0"/>
    <interval begin="27000.00" end="27300.00" id="110_0_D2.1" nVehContrib="0" flow="0.00" occupancy="0.00" speed="-1.00" harmonicMeanSpeed="-1.00" length="-1.00" nVehEntered="0"/>
    <interval begin="27000.00" end="27300.00" id="110_0_D2.2" nVehContrib="0" flow="0.00" occupancy="0.00" speed="-1.00" harmonicMeanSpeed="-1.00" length="-1.00" nVehEntered="0"/>
    <interval begin="27000.00" end="27300.00" id="110_0_D3.0" nVehContrib="0" flow="0.00" occupancy="0.00" speed="-1.00" harmonicMeanSpeed="-1.00" length="-1.00" nVehEntered="0"/>
    <interval begin="27000.00" end="27300.00" id="110_0_D3.1" nVehContrib="0" flow="0.00" occupancy="0.00" speed="-1.00" harmonicMeanSpeed="-1.00" length="-1.00" nVehEntered="0"/>
    <interval begin="27000.00" end="27300.00" id="110_0_D3.2" nVehContrib="0" flow="0.00" occupancy="0.00" speed="-1.00" harmonicMeanSpeed="-1.00" length="-1.00" nVehEntered="0"/>
    <interval begin="27000.00" end="27300.00" id="111_0_D0.0" nVehContrib="0" flow="0.00" occupancy="0.00" speed="-1.00" harmonicMeanSpeed="-1.00" length="-1.00" nVehEntered="0"/>
    <interval begin="27000.00" end="27300.00" id="111_0_D0.1" nVehContrib="0" flow="0.00" occupancy="0.00" speed="-1.00" harmonicMeanSpeed="-1.00" length="-1.00" nVehEntered="0"/>
    <interval begin="27000.00" end="27300.00" id="111_0_D0.2" nVehContrib="0" flow="0.00" occupancy="0.00" speed="-1.00" harmonicMeanSpeed="-1.00" length="-1.00" nVehEntered="0"/>
    <interval begin="27000.00" end="27300.00" id="111_0_D1.0" nVehContrib="17" flow="204.00" occupancy="2.26" speed="12.73" harmonicMeanSpeed="12.54" length="5.00" nVehEntered="17"/>
    <interval begin="27000.00" end="27300.00" id="111_0_D1.1" nVehContrib="5" flow="60.00" occupancy="0.61" speed="13.71" harmonicMeanSpeed="13.60" length="5.00" nVehEntered="5"/>
    <interval begin="27000.00" end="27300.00" id="111_0_D1.2" nVehContrib="2" flow="24.00" occupancy="0.22" speed="15.37" harmonicMeanSpeed="15.36" length="5.00" nVehEntered="2"/>
    <interval begin="27000.00" end="27300.00" id="111_0_D2.0" nVehContrib="0" flow="0.00" occupancy="0.00" speed="-1.00" harmonicMeanSpeed="-1.00" length="-1.00" nVehEntered="0"/>
    <interval begin="27000.00" end="27300.00" id="111_0_D2.1" nVehContrib="0" flow="0.00" occupancy="0.00" speed="-1.00" harmonicMeanSpeed="-1.00" length="-1.00" nVehEntered="0"/>
    <interval begin="27000.00" end="27300.00" id="111_0_D3.0" nVehContrib="17" flow="204.00" occupancy="2.24" speed="12.78" harmonicMeanSpeed="12.66" length="5.00" nVehEntered="17"/>
    <interval begin="27000.00" end="27300.00" id="111_0_D3.1" nVehContrib="4" flow="48.00" occupancy="0.52" speed="12.76" harmonicMeanSpeed="12.74" length="5.00" nVehEntered="4"/>
    <interval begin="27000.00" end="27300.00" id="111_0_D3.2" nVehContrib="1" flow="12.00" occupancy="0.15" speed="11.44" harmonicMeanSpeed="11.44" length="5.00" nVehEntered="1"/>
    <interval begin="27000.00" end="27300.00" id="113_0_D0.0" nVehContrib="34" flow="408.00" occupancy="4.16" speed="14.11" harmonicMeanSpeed="13.97" length="5.00" nVehEntered="35"/>
    <interval begin="27000.00" end="27300.00" id="113_0_D0.1" nVehContrib="15" flow="180.00" occupancy="1.84" speed="15.03" harmonicMeanSpeed="13.57" length="5.00" nVehEntered="15"/>
    <interval begin="27000.00" end="27300.00" id="113_0_D0.2" nVehContrib="1" flow="12.00" occupancy="0.14" speed="12.33" harmonicMeanSpeed="12.33" length="5.00" nVehEntered="1"/>
    <interval begin="27000.00" end="27300.00" id="113_0_D0.3" nVehContrib="1" flow="12.00" occupancy="0.12" speed="14.35" harmonicMeanSpeed="14.35" length="5.00" nVehEntered="1"/>
    <interval begin="27000.00" end="27300.00" id="113_0_D1.0" nVehContrib="2" flow="24.00" occupancy="0.28" speed="12.09" harmonicMeanSpeed="12.09" length="5.00" nVehEntered="2"/>
    <interval begin="27000.00" end="27300.00" id="113_0_D1.1" nVehContrib="1" flow="12.00" occupancy="0.15" speed="11.24" harmonicMeanSpeed="11.24" length="5.00" nVehEntered="1"/>
    <interval begin="27000.00" end="27300.00" id="113_0_D2.0" nVehContrib="46" flow="552.00" occupancy="5.47" speed="14.85" harmonicMeanSpeed="14.49" length="5.00" nVehEntered="47"/>
    <interval begin="27000.00" end="27300.00" id="113_0_D2.1" nVehContrib="40" flow="480.00" occupancy="4.32" speed="16.50" harmonicMeanSpeed="15.72" length="5.00" nVehEntered="42"/>
    <interval begin="27000.00" end="27300.00" id="113_0_D2.2" nVehContrib="26" flow="312.00" occupancy="3.16" speed="16.19" harmonicMeanSpeed="13.72" length="5.00" nVehEntered="26"/>
    <interval begin="27000.00" end="27300.00" id="113_0_D2.3" nVehContrib="8" flow="96.00" occupancy="0.80" speed="17.04" harmonicMeanSpeed="16.66" length="5.00" nVehEntered="8"/>
    <interval begin="27000.00" end="27300.00" id="113_0_D3.0" nVehContrib="1" flow="12.00" occupancy="0.14" speed="11.79" harmonicMeanSpeed="11.79" length="5.00" nVehEntered="1"/>
    <interval begin="27000.00" end="27300.00" id="113_0_D3.1" nVehContrib="1" flow="12.00" occupancy="0.14" speed="11.90" harmonicMeanSpeed="11.90" length="5.00" nVehEntered="1"/>
    <interval begin="27000.00" end="27300.00" id="114_0_D0.0" nVehContrib="23" flow="276.00" occupancy="2.44" speed="16.15" harmonicMeanSpeed="16.00" length="5.00" nVehEntered="24"/>
    <interval begin="27000.00" end="27300.00" id="114_0_D0.1" nVehContrib="11" flow="132.00" occupancy="1.27" speed="18.00" harmonicMeanSpeed="14.43" length="5.00" nVehEntered="11"/>